{
  "timestamp": "2025-09-12T03:24:42.787816",
  "total_materials": 10000,
  "total_features": 126,
  "columns": [
    "Unnamed: 0.1",
    "Unnamed: 0",
    "pca1",
    "pca2",
    "pca3",
    "pca4",
    "pca5",
    "pca6",
    "pca7",
    "pca8",
    "pca9",
    "pca10",
    "pca11",
    "pca12",
    "pca13",
    "pca14",
    "pca15",
    "pca16",
    "pca17",
    "pca18",
    "pca19",
    "pca20",
    "pca21",
    "pca22",
    "pca23",
    "pca24",
    "pca25",
    "pca26",
    "pca27",
    "pca28",
    "pca29",
    "pca30",
    "pca31",
    "pca32",
    "pca33",
    "pca34",
    "pca35",
    "pca36",
    "pca37",
    "pca38",
    "pca39",
    "pca40",
    "pca41",
    "pca42",
    "pca43",
    "pca44",
    "pca45",
    "pca46",
    "pca47",
    "pca48",
    "pca49",
    "pca50",
    "pca51",
    "pca52",
    "pca53",
    "pca54",
    "pca55",
    "pca56",
    "pca57",
    "pca58",
    "pca59",
    "pca60",
    "pca61",
    "pca62",
    "pca63",
    "pca64",
    "pca65",
    "pca66",
    "pca67",
    "pca68",
    "pca69",
    "pca70",
    "pca71",
    "pca72",
    "pca73",
    "pca74",
    "pca75",
    "pca76",
    "pca77",
    "pca78",
    "pca79",
    "pca80",
    "pca81",
    "pca82",
    "pca83",
    "pca84",
    "pca85",
    "pca86",
    "pca87",
    "pca88",
    "pca89",
    "pca90",
    "pca91",
    "pca92",
    "pca93",
    "pca94",
    "pca95",
    "pca96",
    "pca97",
    "pca98",
    "pca99",
    "pca100",
    "bandgap",
    "material_id",
    "metallic_fraction",
    "electroneg_diff",
    "avg_electroneg",
    "density",
    "volume",
    "nsites",
    "formation_energy_per_atom",
    "energy_above_hull",
    "band_gap",
    "is_metal",
    "num_elements",
    "formula_pretty",
    "space_group",
    "crystal_system",
    "bulk_modulus",
    "shear_modulus",
    "bulk_modulus_voigt",
    "bulk_modulus_reuss",
    "bulk_modulus_vrh",
    "shear_modulus_voigt",
    "shear_modulus_reuss",
    "shear_modulus_vrh"
  ],
  "missing_data_summary": {
    "Unnamed: 0.1": 0.0,
    "Unnamed: 0": 0.0,
    "pca1": 0.0,
    "pca2": 0.0,
    "pca3": 0.0,
    "pca4": 0.0,
    "pca5": 0.0,
    "pca6": 0.0,
    "pca7": 0.0,
    "pca8": 0.0,
    "pca9": 0.0,
    "pca10": 0.0,
    "pca11": 0.0,
    "pca12": 0.0,
    "pca13": 0.0,
    "pca14": 0.0,
    "pca15": 0.0,
    "pca16": 0.0,
    "pca17": 0.0,
    "pca18": 0.0,
    "pca19": 0.0,
    "pca20": 0.0,
    "pca21": 0.0,
    "pca22": 0.0,
    "pca23": 0.0,
    "pca24": 0.0,
    "pca25": 0.0,
    "pca26": 0.0,
    "pca27": 0.0,
    "pca28": 0.0,
    "pca29": 0.0,
    "pca30": 0.0,
    "pca31": 0.0,
    "pca32": 0.0,
    "pca33": 0.0,
    "pca34": 0.0,
    "pca35": 0.0,
    "pca36": 0.0,
    "pca37": 0.0,
    "pca38": 0.0,
    "pca39": 0.0,
    "pca40": 0.0,
    "pca41": 0.0,
    "pca42": 0.0,
    "pca43": 0.0,
    "pca44": 0.0,
    "pca45": 0.0,
    "pca46": 0.0,
    "pca47": 0.0,
    "pca48": 0.0,
    "pca49": 0.0,
    "pca50": 0.0,
    "pca51": 0.0,
    "pca52": 0.0,
    "pca53": 0.0,
    "pca54": 0.0,
    "pca55": 0.0,
    "pca56": 0.0,
    "pca57": 0.0,
    "pca58": 0.0,
    "pca59": 0.0,
    "pca60": 0.0,
    "pca61": 0.0,
    "pca62": 0.0,
    "pca63": 0.0,
    "pca64": 0.0,
    "pca65": 0.0,
    "pca66": 0.0,
    "pca67": 0.0,
    "pca68": 0.0,
    "pca69": 0.0,
    "pca70": 0.0,
    "pca71": 0.0,
    "pca72": 0.0,
    "pca73": 0.0,
    "pca74": 0.0,
    "pca75": 0.0,
    "pca76": 0.0,
    "pca77": 0.0,
    "pca78": 0.0,
    "pca79": 0.0,
    "pca80": 0.0,
    "pca81": 0.0,
    "pca82": 0.0,
    "pca83": 0.0,
    "pca84": 0.0,
    "pca85": 0.0,
    "pca86": 0.0,
    "pca87": 0.0,
    "pca88": 0.0,
    "pca89": 0.0,
    "pca90": 0.0,
    "pca91": 0.0,
    "pca92": 0.0,
    "pca93": 0.0,
    "pca94": 0.0,
    "pca95": 0.0,
    "pca96": 0.0,
    "pca97": 0.0,
    "pca98": 0.0,
    "pca99": 0.0,
    "pca100": 0.0,
    "bandgap": 0.0,
    "material_id": 0.0,
    "metallic_fraction": 1.37,
    "electroneg_diff": 1.37,
    "avg_electroneg": 1.37,
    "density": 1.37,
    "volume": 1.37,
    "nsites": 1.37,
    "formation_energy_per_atom": 1.37,
    "energy_above_hull": 1.37,
    "band_gap": 1.37,
    "is_metal": 1.37,
    "num_elements": 1.37,
    "formula_pretty": 1.37,
    "space_group": 1.37,
    "crystal_system": 1.37,
    "bulk_modulus": 91.14,
    "shear_modulus": 91.14,
    "bulk_modulus_voigt": 91.14,
    "bulk_modulus_reuss": 91.14,
    "bulk_modulus_vrh": 91.14,
    "shear_modulus_voigt": 91.14,
    "shear_modulus_reuss": 91.14,
    "shear_modulus_vrh": 91.14
  },
  "data_types": {
    "Unnamed: 0.1": "int64",
    "Unnamed: 0": "int64",
    "pca1": "float64",
    "pca2": "float64",
    "pca3": "float64",
    "pca4": "float64",
    "pca5": "float64",
    "pca6": "float64",
    "pca7": "float64",
    "pca8": "float64",
    "pca9": "float64",
    "pca10": "float64",
    "pca11": "float64",
    "pca12": "float64",
    "pca13": "float64",
    "pca14": "float64",
    "pca15": "float64",
    "pca16": "float64",
    "pca17": "float64",
    "pca18": "float64",
    "pca19": "float64",
    "pca20": "float64",
    "pca21": "float64",
    "pca22": "float64",
    "pca23": "float64",
    "pca24": "float64",
    "pca25": "float64",
    "pca26": "float64",
    "pca27": "float64",
    "pca28": "float64",
    "pca29": "float64",
    "pca30": "float64",
    "pca31": "float64",
    "pca32": "float64",
    "pca33": "float64",
    "pca34": "float64",
    "pca35": "float64",
    "pca36": "float64",
    "pca37": "float64",
    "pca38": "float64",
    "pca39": "float64",
    "pca40": "float64",
    "pca41": "float64",
    "pca42": "float64",
    "pca43": "float64",
    "pca44": "float64",
    "pca45": "float64",
    "pca46": "float64",
    "pca47": "float64",
    "pca48": "float64",
    "pca49": "float64",
    "pca50": "float64",
    "pca51": "float64",
    "pca52": "float64",
    "pca53": "float64",
    "pca54": "float64",
    "pca55": "float64",
    "pca56": "float64",
    "pca57": "float64",
    "pca58": "float64",
    "pca59": "float64",
    "pca60": "float64",
    "pca61": "float64",
    "pca62": "float64",
    "pca63": "float64",
    "pca64": "float64",
    "pca65": "float64",
    "pca66": "float64",
    "pca67": "float64",
    "pca68": "float64",
    "pca69": "float64",
    "pca70": "float64",
    "pca71": "float64",
    "pca72": "float64",
    "pca73": "float64",
    "pca74": "float64",
    "pca75": "float64",
    "pca76": "float64",
    "pca77": "float64",
    "pca78": "float64",
    "pca79": "float64",
    "pca80": "float64",
    "pca81": "float64",
    "pca82": "float64",
    "pca83": "float64",
    "pca84": "float64",
    "pca85": "float64",
    "pca86": "float64",
    "pca87": "float64",
    "pca88": "float64",
    "pca89": "float64",
    "pca90": "float64",
    "pca91": "float64",
    "pca92": "float64",
    "pca93": "float64",
    "pca94": "float64",
    "pca95": "float64",
    "pca96": "float64",
    "pca97": "float64",
    "pca98": "float64",
    "pca99": "float64",
    "pca100": "float64",
    "bandgap": "float64",
    "material_id": "object",
    "metallic_fraction": "float64",
    "electroneg_diff": "float64",
    "avg_electroneg": "float64",
    "density": "float64",
    "volume": "float64",
    "nsites": "float64",
    "formation_energy_per_atom": "float64",
    "energy_above_hull": "float64",
    "band_gap": "float64",
    "is_metal": "object",
    "num_elements": "float64",
    "formula_pretty": "object",
    "space_group": "object",
    "crystal_system": "object",
    "bulk_modulus": "float64",
    "shear_modulus": "float64",
    "bulk_modulus_voigt": "float64",
    "bulk_modulus_reuss": "float64",
    "bulk_modulus_vrh": "float64",
    "shear_modulus_voigt": "float64",
    "shear_modulus_reuss": "float64",
    "shear_modulus_vrh": "float64"
  },
  "mp_features_added": [
    "density",
    "volume",
    "nsites",
    "formation_energy_per_atom",
    "energy_above_hull",
    "band_gap",
    "is_metal",
    "num_elements",
    "formula_pretty",
    "space_group",
    "crystal_system",
    "bulk_modulus",
    "shear_modulus"
  ]
}